ITEM: TIMESTEP
0
ITEM: NUMBER OF ATOMS
680
ITEM: BOX BOUNDS pp pp pp
-2.0000000000000000e+01 6.0000000000000000e+01
-2.0000000000000000e+01 6.0000000000000000e+01
-2.0000000000000000e+01 6.0000000000000000e+01
ITEM: ATOMS id type xs ys zs
1 1 0.25 0.25 0.25
2 1 0.23465 0.258862 0.25
3 1 0.23465 0.276587 0.25
4 1 0.25 0.28545 0.25
5 1 0.280701 0.25 0.25
6 1 0.26535 0.258862 0.25
7 1 0.26535 0.276587 0.25
8 1 0.280701 0.28545 0.25
10 1 0.296051 0.258862 0.25
11 1 0.296051 0.276587 0.25
9 1 0.311401 0.25 0.25
12 1 0.311401 0.28545 0.25
13 1 0.342102 0.25 0.25
14 1 0.326752 0.258862 0.25
15 1 0.326752 0.276587 0.25
16 1 0.342102 0.28545 0.25
17 1 0.372802 0.25 0.25
18 1 0.357452 0.258862 0.25
19 1 0.357452 0.276587 0.25
20 1 0.372802 0.28545 0.25
22 1 0.388153 0.258862 0.25
23 1 0.388153 0.276587 0.25
21 1 0.403503 0.25 0.25
24 1 0.403503 0.28545 0.25
25 1 0.434204 0.25 0.25
26 1 0.418853 0.258862 0.25
27 1 0.418853 0.276587 0.25
28 1 0.434204 0.28545 0.25
29 1 0.464904 0.25 0.25
30 1 0.449554 0.258862 0.25
31 1 0.449554 0.276587 0.25
32 1 0.464904 0.28545 0.25
33 1 0.495605 0.25 0.25
34 1 0.480255 0.258862 0.25
35 1 0.480255 0.276587 0.25
36 1 0.495605 0.28545 0.25
37 1 0.526305 0.25 0.25
38 1 0.510955 0.258862 0.25
39 1 0.510955 0.276587 0.25
40 1 0.526305 0.28545 0.25
41 1 0.557006 0.25 0.25
42 1 0.541656 0.258862 0.25
43 1 0.541656 0.276587 0.25
44 1 0.557006 0.28545 0.25
45 1 0.587707 0.25 0.25
46 1 0.572356 0.258862 0.25
47 1 0.572356 0.276587 0.25
48 1 0.587707 0.28545 0.25
49 1 0.618407 0.25 0.25
50 1 0.603057 0.258862 0.25
51 1 0.603057 0.276587 0.25
52 1 0.618407 0.28545 0.25
53 1 0.649108 0.25 0.25
54 1 0.633758 0.258862 0.25
55 1 0.633758 0.276587 0.25
56 1 0.649108 0.28545 0.25
57 1 0.679808 0.25 0.25
58 1 0.664458 0.258862 0.25
59 1 0.664458 0.276587 0.25
60 1 0.679808 0.28545 0.25
62 1 0.695159 0.258862 0.25
63 1 0.695159 0.276587 0.25
61 1 0.710509 0.25 0.25
64 1 0.710509 0.28545 0.25
65 1 0.74121 0.25 0.25
66 1 0.725859 0.258862 0.25
67 1 0.725859 0.276587 0.25
68 1 0.74121 0.28545 0.25
69 1 0.25 0.303175 0.25
70 1 0.23465 0.312038 0.25
71 1 0.23465 0.329763 0.25
72 1 0.25 0.338625 0.25
73 1 0.280701 0.303175 0.25
74 1 0.26535 0.312038 0.25
75 1 0.26535 0.329763 0.25
76 1 0.280701 0.338625 0.25
78 1 0.296051 0.312038 0.25
79 1 0.296051 0.329763 0.25
137 1 0.25 0.35635 0.25
138 1 0.23465 0.365212 0.25
139 1 0.23465 0.382937 0.25
140 1 0.25 0.3918 0.25
141 1 0.280701 0.35635 0.25
142 1 0.26535 0.365212 0.25
143 1 0.26535 0.382937 0.25
144 1 0.280701 0.3918 0.25
146 1 0.296051 0.365212 0.25
147 1 0.296051 0.382937 0.25
77 1 0.311401 0.303175 0.25
80 1 0.311401 0.338625 0.25
81 1 0.342102 0.303175 0.25
82 1 0.326752 0.312038 0.25
83 1 0.326752 0.329763 0.25
84 1 0.342102 0.338625 0.25
85 1 0.372802 0.303175 0.25
86 1 0.357452 0.312038 0.25
87 1 0.357452 0.329763 0.25
88 1 0.372802 0.338625 0.25
90 1 0.388153 0.312038 0.25
91 1 0.388153 0.329763 0.25
145 1 0.311401 0.35635 0.25
148 1 0.311401 0.3918 0.25
149 1 0.342102 0.35635 0.25
150 1 0.326752 0.365212 0.25
151 1 0.326752 0.382937 0.25
152 1 0.342102 0.3918 0.25
153 1 0.372802 0.35635 0.25
154 1 0.357452 0.365212 0.25
155 1 0.357452 0.382937 0.25
156 1 0.372802 0.3918 0.25
158 1 0.388153 0.365212 0.25
159 1 0.388153 0.382937 0.25
89 1 0.403503 0.303175 0.25
92 1 0.403503 0.338625 0.25
93 1 0.434204 0.303175 0.25
94 1 0.418853 0.312038 0.25
95 1 0.418853 0.329763 0.25
96 1 0.434204 0.338625 0.25
97 1 0.464904 0.303175 0.25
98 1 0.449554 0.312038 0.25
99 1 0.449554 0.329763 0.25
100 1 0.464904 0.338625 0.25
101 1 0.495605 0.303175 0.25
102 1 0.480255 0.312038 0.25
103 1 0.480255 0.329763 0.25
104 1 0.495605 0.338625 0.25
157 1 0.403503 0.35635 0.25
160 1 0.403503 0.3918 0.25
161 1 0.434204 0.35635 0.25
162 1 0.418853 0.365212 0.25
163 1 0.418853 0.382937 0.25
164 1 0.434204 0.3918 0.25
165 1 0.464904 0.35635 0.25
166 1 0.449554 0.365212 0.25
167 1 0.449554 0.382937 0.25
168 1 0.464904 0.3918 0.25
169 1 0.495605 0.35635 0.25
170 1 0.480255 0.365212 0.25
171 1 0.480255 0.382937 0.25
172 1 0.495605 0.3918 0.25
105 1 0.526305 0.303175 0.25
106 1 0.510955 0.312038 0.25
107 1 0.510955 0.329763 0.25
108 1 0.526305 0.338625 0.25
109 1 0.557006 0.303175 0.25
110 1 0.541656 0.312038 0.25
111 1 0.541656 0.329763 0.25
112 1 0.557006 0.338625 0.25
113 1 0.587707 0.303175 0.25
114 1 0.572356 0.312038 0.25
115 1 0.572356 0.329763 0.25
116 1 0.587707 0.338625 0.25
173 1 0.526305 0.35635 0.25
174 1 0.510955 0.365212 0.25
175 1 0.510955 0.382937 0.25
176 1 0.526305 0.3918 0.25
177 1 0.557006 0.35635 0.25
178 1 0.541656 0.365212 0.25
179 1 0.541656 0.382937 0.25
180 1 0.557006 0.3918 0.25
181 1 0.587707 0.35635 0.25
182 1 0.572356 0.365212 0.25
183 1 0.572356 0.382937 0.25
184 1 0.587707 0.3918 0.25
117 1 0.618407 0.303175 0.25
118 1 0.603057 0.312038 0.25
119 1 0.603057 0.329763 0.25
120 1 0.618407 0.338625 0.25
121 1 0.649108 0.303175 0.25
122 1 0.633758 0.312038 0.25
123 1 0.633758 0.329763 0.25
124 1 0.649108 0.338625 0.25
125 1 0.679808 0.303175 0.25
126 1 0.664458 0.312038 0.25
127 1 0.664458 0.329763 0.25
128 1 0.679808 0.338625 0.25
130 1 0.695159 0.312038 0.25
131 1 0.695159 0.329763 0.25
185 1 0.618407 0.35635 0.25
186 1 0.603057 0.365212 0.25
187 1 0.603057 0.382937 0.25
188 1 0.618407 0.3918 0.25
189 1 0.649108 0.35635 0.25
190 1 0.633758 0.365212 0.25
191 1 0.633758 0.382937 0.25
192 1 0.649108 0.3918 0.25
193 1 0.679808 0.35635 0.25
194 1 0.664458 0.365212 0.25
195 1 0.664458 0.382937 0.25
196 1 0.679808 0.3918 0.25
198 1 0.695159 0.365212 0.25
199 1 0.695159 0.382937 0.25
129 1 0.710509 0.303175 0.25
132 1 0.710509 0.338625 0.25
133 1 0.74121 0.303175 0.25
134 1 0.725859 0.312038 0.25
135 1 0.725859 0.329763 0.25
136 1 0.74121 0.338625 0.25
197 1 0.710509 0.35635 0.25
200 1 0.710509 0.3918 0.25
201 1 0.74121 0.35635 0.25
202 1 0.725859 0.365212 0.25
203 1 0.725859 0.382937 0.25
204 1 0.74121 0.3918 0.25
205 1 0.25 0.409525 0.25
206 1 0.23465 0.418388 0.25
207 1 0.23465 0.436112 0.25
208 1 0.25 0.444975 0.25
209 1 0.280701 0.409525 0.25
210 1 0.26535 0.418388 0.25
211 1 0.26535 0.436112 0.25
212 1 0.280701 0.444975 0.25
214 1 0.296051 0.418388 0.25
215 1 0.296051 0.436112 0.25
273 1 0.25 0.4627 0.25
274 1 0.23465 0.471563 0.25
275 1 0.23465 0.489288 0.25
276 1 0.25 0.49815 0.25
277 1 0.280701 0.4627 0.25
278 1 0.26535 0.471563 0.25
279 1 0.26535 0.489288 0.25
280 1 0.280701 0.49815 0.25
282 1 0.296051 0.471563 0.25
283 1 0.296051 0.489288 0.25
213 1 0.311401 0.409525 0.25
216 1 0.311401 0.444975 0.25
217 1 0.342102 0.409525 0.25
218 1 0.326752 0.418388 0.25
219 1 0.326752 0.436112 0.25
220 1 0.342102 0.444975 0.25
221 1 0.372802 0.409525 0.25
222 1 0.357452 0.418388 0.25
223 1 0.357452 0.436112 0.25
224 1 0.372802 0.444975 0.25
226 1 0.388153 0.418388 0.25
227 1 0.388153 0.436112 0.25
281 1 0.311401 0.4627 0.25
284 1 0.311401 0.49815 0.25
285 1 0.342102 0.4627 0.25
286 1 0.326752 0.471563 0.25
287 1 0.326752 0.489288 0.25
288 1 0.342102 0.49815 0.25
289 1 0.372802 0.4627 0.25
290 1 0.357452 0.471563 0.25
291 1 0.357452 0.489288 0.25
292 1 0.372802 0.49815 0.25
294 1 0.388153 0.471563 0.25
295 1 0.388153 0.489288 0.25
225 1 0.403503 0.409525 0.25
228 1 0.403503 0.444975 0.25
229 1 0.434204 0.409525 0.25
230 1 0.418853 0.418388 0.25
231 1 0.418853 0.436112 0.25
232 1 0.434204 0.444975 0.25
233 1 0.464904 0.409525 0.25
234 1 0.449554 0.418388 0.25
235 1 0.449554 0.436112 0.25
236 1 0.464904 0.444975 0.25
237 1 0.495605 0.409525 0.25
238 1 0.480255 0.418388 0.25
239 1 0.480255 0.436112 0.25
240 1 0.495605 0.444975 0.25
293 1 0.403503 0.4627 0.25
296 1 0.403503 0.49815 0.25
297 1 0.434204 0.4627 0.25
298 1 0.418853 0.471563 0.25
299 1 0.418853 0.489288 0.25
300 1 0.434204 0.49815 0.25
301 1 0.464904 0.4627 0.25
302 1 0.449554 0.471563 0.25
303 1 0.449554 0.489288 0.25
304 1 0.464904 0.49815 0.25
305 1 0.495605 0.4627 0.25
306 1 0.480255 0.471563 0.25
307 1 0.480255 0.489288 0.25
308 1 0.495605 0.49815 0.25
241 1 0.526305 0.409525 0.25
242 1 0.510955 0.418388 0.25
243 1 0.510955 0.436112 0.25
244 1 0.526305 0.444975 0.25
245 1 0.557006 0.409525 0.25
246 1 0.541656 0.418388 0.25
247 1 0.541656 0.436112 0.25
248 1 0.557006 0.444975 0.25
249 1 0.587707 0.409525 0.25
250 1 0.572356 0.418388 0.25
251 1 0.572356 0.436112 0.25
252 1 0.587707 0.444975 0.25
309 1 0.526305 0.4627 0.25
310 1 0.510955 0.471563 0.25
311 1 0.510955 0.489288 0.25
312 1 0.526305 0.49815 0.25
313 1 0.557006 0.4627 0.25
314 1 0.541656 0.471563 0.25
315 1 0.541656 0.489288 0.25
316 1 0.557006 0.49815 0.25
317 1 0.587707 0.4627 0.25
318 1 0.572356 0.471563 0.25
319 1 0.572356 0.489288 0.25
320 1 0.587707 0.49815 0.25
253 1 0.618407 0.409525 0.25
254 1 0.603057 0.418388 0.25
255 1 0.603057 0.436112 0.25
256 1 0.618407 0.444975 0.25
257 1 0.649108 0.409525 0.25
258 1 0.633758 0.418388 0.25
259 1 0.633758 0.436112 0.25
260 1 0.649108 0.444975 0.25
261 1 0.679808 0.409525 0.25
262 1 0.664458 0.418388 0.25
263 1 0.664458 0.436112 0.25
264 1 0.679808 0.444975 0.25
266 1 0.695159 0.418388 0.25
267 1 0.695159 0.436112 0.25
321 1 0.618407 0.4627 0.25
322 1 0.603057 0.471563 0.25
323 1 0.603057 0.489288 0.25
324 1 0.618407 0.49815 0.25
325 1 0.649108 0.4627 0.25
326 1 0.633758 0.471563 0.25
327 1 0.633758 0.489288 0.25
328 1 0.649108 0.49815 0.25
329 1 0.679808 0.4627 0.25
330 1 0.664458 0.471563 0.25
331 1 0.664458 0.489288 0.25
332 1 0.679808 0.49815 0.25
334 1 0.695159 0.471563 0.25
335 1 0.695159 0.489288 0.25
265 1 0.710509 0.409525 0.25
268 1 0.710509 0.444975 0.25
269 1 0.74121 0.409525 0.25
270 1 0.725859 0.418388 0.25
271 1 0.725859 0.436112 0.25
272 1 0.74121 0.444975 0.25
333 1 0.710509 0.4627 0.25
336 1 0.710509 0.49815 0.25
337 1 0.74121 0.4627 0.25
338 1 0.725859 0.471563 0.25
339 1 0.725859 0.489288 0.25
340 1 0.74121 0.49815 0.25
341 1 0.25 0.515875 0.25
342 1 0.23465 0.524737 0.25
343 1 0.23465 0.542462 0.25
344 1 0.25 0.551325 0.25
345 1 0.280701 0.515875 0.25
346 1 0.26535 0.524737 0.25
347 1 0.26535 0.542462 0.25
348 1 0.280701 0.551325 0.25
350 1 0.296051 0.524737 0.25
351 1 0.296051 0.542462 0.25
409 1 0.25 0.56905 0.25
410 1 0.23465 0.577913 0.25
411 1 0.23465 0.595637 0.25
413 1 0.280701 0.56905 0.25
414 1 0.26535 0.577913 0.25
415 1 0.26535 0.595637 0.25
418 1 0.296051 0.577913 0.25
419 1 0.296051 0.595637 0.25
349 1 0.311401 0.515875 0.25
352 1 0.311401 0.551325 0.25
353 1 0.342102 0.515875 0.25
354 1 0.326752 0.524737 0.25
355 1 0.326752 0.542462 0.25
356 1 0.342102 0.551325 0.25
357 1 0.372802 0.515875 0.25
358 1 0.357452 0.524737 0.25
359 1 0.357452 0.542462 0.25
360 1 0.372802 0.551325 0.25
362 1 0.388153 0.524737 0.25
363 1 0.388153 0.542462 0.25
417 1 0.311401 0.56905 0.25
421 1 0.342102 0.56905 0.25
422 1 0.326752 0.577913 0.25
423 1 0.326752 0.595637 0.25
425 1 0.372802 0.56905 0.25
426 1 0.357452 0.577913 0.25
427 1 0.357452 0.595637 0.25
430 1 0.388153 0.577913 0.25
431 1 0.388153 0.595637 0.25
361 1 0.403503 0.515875 0.25
364 1 0.403503 0.551325 0.25
365 1 0.434204 0.515875 0.25
366 1 0.418853 0.524737 0.25
367 1 0.418853 0.542462 0.25
368 1 0.434204 0.551325 0.25
369 1 0.464904 0.515875 0.25
370 1 0.449554 0.524737 0.25
371 1 0.449554 0.542462 0.25
372 1 0.464904 0.551325 0.25
373 1 0.495605 0.515875 0.25
374 1 0.480255 0.524737 0.25
375 1 0.480255 0.542462 0.25
376 1 0.495605 0.551325 0.25
429 1 0.403503 0.56905 0.25
433 1 0.434204 0.56905 0.25
434 1 0.418853 0.577913 0.25
435 1 0.418853 0.595637 0.25
437 1 0.464904 0.56905 0.25
438 1 0.449554 0.577913 0.25
439 1 0.449554 0.595637 0.25
441 1 0.495605 0.56905 0.25
442 1 0.480255 0.577913 0.25
443 1 0.480255 0.595637 0.25
377 1 0.526305 0.515875 0.25
378 1 0.510955 0.524737 0.25
379 1 0.510955 0.542462 0.25
380 1 0.526305 0.551325 0.25
381 1 0.557006 0.515875 0.25
382 1 0.541656 0.524737 0.25
383 1 0.541656 0.542462 0.25
384 1 0.557006 0.551325 0.25
385 1 0.587707 0.515875 0.25
386 1 0.572356 0.524737 0.25
387 1 0.572356 0.542462 0.25
388 1 0.587707 0.551325 0.25
445 1 0.526305 0.56905 0.25
446 1 0.510955 0.577913 0.25
447 1 0.510955 0.595637 0.25
449 1 0.557006 0.56905 0.25
450 1 0.541656 0.577913 0.25
451 1 0.541656 0.595637 0.25
453 1 0.587707 0.56905 0.25
454 1 0.572356 0.577913 0.25
455 1 0.572356 0.595637 0.25
389 1 0.618407 0.515875 0.25
390 1 0.603057 0.524737 0.25
391 1 0.603057 0.542462 0.25
392 1 0.618407 0.551325 0.25
393 1 0.649108 0.515875 0.25
394 1 0.633758 0.524737 0.25
395 1 0.633758 0.542462 0.25
396 1 0.649108 0.551325 0.25
397 1 0.679808 0.515875 0.25
398 1 0.664458 0.524737 0.25
399 1 0.664458 0.542462 0.25
400 1 0.679808 0.551325 0.25
402 1 0.695159 0.524737 0.25
403 1 0.695159 0.542462 0.25
457 1 0.618407 0.56905 0.25
458 1 0.603057 0.577913 0.25
459 1 0.603057 0.595637 0.25
461 1 0.649108 0.56905 0.25
462 1 0.633758 0.577913 0.25
463 1 0.633758 0.595637 0.25
465 1 0.679808 0.56905 0.25
466 1 0.664458 0.577913 0.25
467 1 0.664458 0.595637 0.25
470 1 0.695159 0.577913 0.25
471 1 0.695159 0.595637 0.25
401 1 0.710509 0.515875 0.25
404 1 0.710509 0.551325 0.25
405 1 0.74121 0.515875 0.25
406 1 0.725859 0.524737 0.25
407 1 0.725859 0.542462 0.25
408 1 0.74121 0.551325 0.25
469 1 0.710509 0.56905 0.25
473 1 0.74121 0.56905 0.25
474 1 0.725859 0.577913 0.25
475 1 0.725859 0.595637 0.25
412 1 0.25 0.6045 0.25
416 1 0.280701 0.6045 0.25
477 1 0.25 0.622225 0.25
478 1 0.23465 0.631088 0.25
479 1 0.23465 0.648813 0.25
480 1 0.25 0.657675 0.25
481 1 0.280701 0.622225 0.25
482 1 0.26535 0.631088 0.25
483 1 0.26535 0.648813 0.25
484 1 0.280701 0.657675 0.25
486 1 0.296051 0.631088 0.25
487 1 0.296051 0.648813 0.25
545 1 0.25 0.6754 0.25
546 1 0.23465 0.684263 0.25
549 1 0.280701 0.6754 0.25
550 1 0.26535 0.684263 0.25
554 1 0.296051 0.684263 0.25
420 1 0.311401 0.6045 0.25
424 1 0.342102 0.6045 0.25
428 1 0.372802 0.6045 0.25
485 1 0.311401 0.622225 0.25
488 1 0.311401 0.657675 0.25
489 1 0.342102 0.622225 0.25
490 1 0.326752 0.631088 0.25
491 1 0.326752 0.648813 0.25
492 1 0.342102 0.657675 0.25
493 1 0.372802 0.622225 0.25
494 1 0.357452 0.631088 0.25
495 1 0.357452 0.648813 0.25
496 1 0.372802 0.657675 0.25
498 1 0.388153 0.631088 0.25
499 1 0.388153 0.648813 0.25
553 1 0.311401 0.6754 0.25
557 1 0.342102 0.6754 0.25
558 1 0.326752 0.684263 0.25
561 1 0.372802 0.6754 0.25
562 1 0.357452 0.684263 0.25
566 1 0.388153 0.684263 0.25
432 1 0.403503 0.6045 0.25
436 1 0.434204 0.6045 0.25
440 1 0.464904 0.6045 0.25
444 1 0.495605 0.6045 0.25
497 1 0.403503 0.622225 0.25
500 1 0.403503 0.657675 0.25
501 1 0.434204 0.622225 0.25
502 1 0.418853 0.631088 0.25
503 1 0.418853 0.648813 0.25
504 1 0.434204 0.657675 0.25
505 1 0.464904 0.622225 0.25
506 1 0.449554 0.631088 0.25
507 1 0.449554 0.648813 0.25
508 1 0.464904 0.657675 0.25
509 1 0.495605 0.622225 0.25
510 1 0.480255 0.631088 0.25
511 1 0.480255 0.648813 0.25
512 1 0.495605 0.657675 0.25
565 1 0.403503 0.6754 0.25
569 1 0.434204 0.6754 0.25
570 1 0.418853 0.684263 0.25
573 1 0.464904 0.6754 0.25
574 1 0.449554 0.684263 0.25
577 1 0.495605 0.6754 0.25
578 1 0.480255 0.684263 0.25
448 1 0.526305 0.6045 0.25
452 1 0.557006 0.6045 0.25
456 1 0.587707 0.6045 0.25
513 1 0.526305 0.622225 0.25
514 1 0.510955 0.631088 0.25
515 1 0.510955 0.648813 0.25
516 1 0.526305 0.657675 0.25
517 1 0.557006 0.622225 0.25
518 1 0.541656 0.631088 0.25
519 1 0.541656 0.648813 0.25
520 1 0.557006 0.657675 0.25
521 1 0.587707 0.622225 0.25
522 1 0.572356 0.631088 0.25
523 1 0.572356 0.648813 0.25
524 1 0.587707 0.657675 0.25
581 1 0.526305 0.6754 0.25
582 1 0.510955 0.684263 0.25
585 1 0.557006 0.6754 0.25
586 1 0.541656 0.684263 0.25
589 1 0.587707 0.6754 0.25
590 1 0.572356 0.684263 0.25
460 1 0.618407 0.6045 0.25
464 1 0.649108 0.6045 0.25
468 1 0.679808 0.6045 0.25
525 1 0.618407 0.622225 0.25
526 1 0.603057 0.631088 0.25
527 1 0.603057 0.648813 0.25
528 1 0.618407 0.657675 0.25
529 1 0.649108 0.622225 0.25
530 1 0.633758 0.631088 0.25
531 1 0.633758 0.648813 0.25
532 1 0.649108 0.657675 0.25
533 1 0.679808 0.622225 0.25
534 1 0.664458 0.631088 0.25
535 1 0.664458 0.648813 0.25
536 1 0.679808 0.657675 0.25
538 1 0.695159 0.631088 0.25
539 1 0.695159 0.648813 0.25
593 1 0.618407 0.6754 0.25
594 1 0.603057 0.684263 0.25
597 1 0.649108 0.6754 0.25
598 1 0.633758 0.684263 0.25
601 1 0.679808 0.6754 0.25
602 1 0.664458 0.684263 0.25
606 1 0.695159 0.684263 0.25
472 1 0.710509 0.6045 0.25
476 1 0.74121 0.6045 0.25
537 1 0.710509 0.622225 0.25
540 1 0.710509 0.657675 0.25
541 1 0.74121 0.622225 0.25
542 1 0.725859 0.631088 0.25
543 1 0.725859 0.648813 0.25
544 1 0.74121 0.657675 0.25
605 1 0.710509 0.6754 0.25
609 1 0.74121 0.6754 0.25
610 1 0.725859 0.684263 0.25
547 1 0.23465 0.701987 0.25
548 1 0.25 0.71085 0.25
551 1 0.26535 0.701987 0.25
552 1 0.280701 0.71085 0.25
555 1 0.296051 0.701987 0.25
613 1 0.25 0.728575 0.25
614 1 0.23465 0.737437 0.25
615 1 0.23465 0.755162 0.25
616 1 0.25 0.764025 0.25
617 1 0.280701 0.728575 0.25
618 1 0.26535 0.737437 0.25
619 1 0.26535 0.755162 0.25
620 1 0.280701 0.764025 0.25
622 1 0.296051 0.737437 0.25
623 1 0.296051 0.755162 0.25
556 1 0.311401 0.71085 0.25
559 1 0.326752 0.701987 0.25
560 1 0.342102 0.71085 0.25
563 1 0.357452 0.701987 0.25
564 1 0.372802 0.71085 0.25
567 1 0.388153 0.701987 0.25
621 1 0.311401 0.728575 0.25
624 1 0.311401 0.764025 0.25
625 1 0.342102 0.728575 0.25
626 1 0.326752 0.737437 0.25
627 1 0.326752 0.755162 0.25
628 1 0.342102 0.764025 0.25
629 1 0.372802 0.728575 0.25
630 1 0.357452 0.737437 0.25
631 1 0.357452 0.755162 0.25
632 1 0.372802 0.764025 0.25
634 1 0.388153 0.737437 0.25
635 1 0.388153 0.755162 0.25
568 1 0.403503 0.71085 0.25
571 1 0.418853 0.701987 0.25
572 1 0.434204 0.71085 0.25
575 1 0.449554 0.701987 0.25
576 1 0.464904 0.71085 0.25
579 1 0.480255 0.701987 0.25
580 1 0.495605 0.71085 0.25
633 1 0.403503 0.728575 0.25
636 1 0.403503 0.764025 0.25
637 1 0.434204 0.728575 0.25
638 1 0.418853 0.737437 0.25
639 1 0.418853 0.755162 0.25
640 1 0.434204 0.764025 0.25
641 1 0.464904 0.728575 0.25
642 1 0.449554 0.737437 0.25
643 1 0.449554 0.755162 0.25
644 1 0.464904 0.764025 0.25
645 1 0.495605 0.728575 0.25
646 1 0.480255 0.737437 0.25
647 1 0.480255 0.755162 0.25
648 1 0.495605 0.764025 0.25
583 1 0.510955 0.701987 0.25
584 1 0.526305 0.71085 0.25
587 1 0.541656 0.701987 0.25
588 1 0.557006 0.71085 0.25
591 1 0.572356 0.701987 0.25
592 1 0.587707 0.71085 0.25
649 1 0.526305 0.728575 0.25
650 1 0.510955 0.737437 0.25
651 1 0.510955 0.755162 0.25
652 1 0.526305 0.764025 0.25
653 1 0.557006 0.728575 0.25
654 1 0.541656 0.737437 0.25
655 1 0.541656 0.755162 0.25
656 1 0.557006 0.764025 0.25
657 1 0.587707 0.728575 0.25
658 1 0.572356 0.737437 0.25
659 1 0.572356 0.755162 0.25
660 1 0.587707 0.764025 0.25
595 1 0.603057 0.701987 0.25
596 1 0.618407 0.71085 0.25
599 1 0.633758 0.701987 0.25
600 1 0.649108 0.71085 0.25
603 1 0.664458 0.701987 0.25
604 1 0.679808 0.71085 0.25
607 1 0.695159 0.701987 0.25
661 1 0.618407 0.728575 0.25
662 1 0.603057 0.737437 0.25
663 1 0.603057 0.755162 0.25
664 1 0.618407 0.764025 0.25
665 1 0.649108 0.728575 0.25
666 1 0.633758 0.737437 0.25
667 1 0.633758 0.755162 0.25
668 1 0.649108 0.764025 0.25
669 1 0.679808 0.728575 0.25
670 1 0.664458 0.737437 0.25
671 1 0.664458 0.755162 0.25
672 1 0.679808 0.764025 0.25
674 1 0.695159 0.737437 0.25
675 1 0.695159 0.755162 0.25
608 1 0.710509 0.71085 0.25
611 1 0.725859 0.701987 0.25
612 1 0.74121 0.71085 0.25
673 1 0.710509 0.728575 0.25
676 1 0.710509 0.764025 0.25
677 1 0.74121 0.728575 0.25
678 1 0.725859 0.737437 0.25
679 1 0.725859 0.755162 0.25
680 1 0.74121 0.764025 0.25
ITEM: TIMESTEP
1000
ITEM: NUMBER OF ATOMS
680
ITEM: BOX BOUNDS pp pp pp
-2.0000000000000000e+01 6.0000000000000000e+01
-2.0000000000000000e+01 6.0000000000000000e+01
-2.0000000000000000e+01 6.0000000000000000e+01
ITEM: ATOMS id type xs ys zs
1 1 0.249287 0.249926 0.250673
2 1 0.23465 0.258489 0.25
3 1 0.23465 0.276059 0.25
4 1 0.249551 0.285006 0.2497
5 1 0.280338 0.248902 0.249837
6 1 0.265218 0.25768 0.249055
7 1 0.264563 0.276402 0.249346
8 1 0.279844 0.28671 0.24962
10 1 0.295422 0.257642 0.24925
11 1 0.294791 0.275728 0.24927
9 1 0.30928 0.249282 0.249215
12 1 0.311176 0.285492 0.249944
13 1 0.342036 0.25036 0.250401
14 1 0.326007 0.257105 0.249833
15 1 0.326022 0.276031 0.249679
16 1 0.341933 0.285143 0.249748
17 1 0.370961 0.248926 0.249966
18 1 0.35694 0.258479 0.250099
19 1 0.355853 0.275328 0.249427
20 1 0.372695 0.284948 0.250227
22 1 0.388001 0.258185 0.250319
23 1 0.386936 0.27599 0.250749
21 1 0.405532 0.24983 0.250851
24 1 0.402499 0.284949 0.25026
25 1 0.43538 0.248398 0.250834
26 1 0.419724 0.257392 0.250722
27 1 0.417206 0.275359 0.250626
28 1 0.432707 0.286214 0.2493
29 1 0.466444 0.24964 0.250542
30 1 0.450201 0.257967 0.250506
31 1 0.448959 0.276644 0.249656
32 1 0.464709 0.284945 0.249162
33 1 0.494295 0.249493 0.250542
34 1 0.480701 0.256925 0.250825
35 1 0.480701 0.276171 0.249927
36 1 0.495379 0.284942 0.250156
37 1 0.527474 0.250245 0.248864
38 1 0.510629 0.258219 0.25018
39 1 0.509082 0.275102 0.250093
40 1 0.525935 0.284647 0.250555
41 1 0.558276 0.248908 0.249548
42 1 0.54246 0.257095 0.249381
43 1 0.542456 0.276254 0.249627
44 1 0.557184 0.283949 0.249977
45 1 0.588283 0.249973 0.25028
46 1 0.572271 0.259253 0.250303
47 1 0.57139 0.275989 0.250325
48 1 0.586654 0.284471 0.250393
49 1 0.616774 0.249761 0.250688
50 1 0.602528 0.258759 0.250914
51 1 0.603011 0.27674 0.250477
52 1 0.617638 0.284848 0.249539
53 1 0.650477 0.249882 0.249355
54 1 0.633747 0.257104 0.249983
55 1 0.632223 0.275433 0.25054
56 1 0.648103 0.286075 0.250337
57 1 0.680015 0.250023 0.250361
58 1 0.664347 0.257859 0.249616
59 1 0.662984 0.275888 0.250616
60 1 0.679263 0.285957 0.250625
62 1 0.694846 0.257866 0.250635
63 1 0.694875 0.276157 0.250513
61 1 0.709629 0.248894 0.249668
64 1 0.711144 0.284176 0.249283
65 1 0.74121 0.249524 0.25
66 1 0.725378 0.257562 0.249568
67 1 0.726114 0.275943 0.249856
68 1 0.74121 0.285062 0.25
69 1 0.249153 0.303063 0.25069
70 1 0.23465 0.311872 0.25
71 1 0.23465 0.32904 0.25
72 1 0.250599 0.337218 0.250085
73 1 0.282557 0.302302 0.250559
74 1 0.265411 0.310982 0.249838
75 1 0.264974 0.329276 0.250567
76 1 0.280685 0.338567 0.25049
78 1 0.296402 0.3102 0.250368
79 1 0.295787 0.329106 0.250284
137 1 0.248645 0.355148 0.250731
138 1 0.23465 0.364658 0.25
139 1 0.23465 0.382711 0.25
140 1 0.248068 0.393323 0.249312
141 1 0.282541 0.354926 0.250466
142 1 0.265044 0.364227 0.249848
143 1 0.263457 0.382684 0.249118
144 1 0.278775 0.392794 0.249033
146 1 0.296496 0.365146 0.249922
147 1 0.294584 0.382692 0.249825
77 1 0.310583 0.303147 0.249703
80 1 0.310498 0.339428 0.250529
81 1 0.341895 0.302994 0.249468
82 1 0.326139 0.311668 0.249196
83 1 0.325281 0.330013 0.249631
84 1 0.340129 0.340471 0.250227
85 1 0.373081 0.302146 0.250428
86 1 0.357825 0.3102 0.250196
87 1 0.357764 0.330147 0.250393
88 1 0.371605 0.339015 0.250205
90 1 0.388399 0.311984 0.249777
91 1 0.387682 0.329529 0.249809
145 1 0.313023 0.355852 0.250295
148 1 0.309904 0.390539 0.250677
149 1 0.341353 0.356142 0.250687
150 1 0.327337 0.364104 0.250079
151 1 0.326009 0.381853 0.250703
152 1 0.341392 0.392593 0.249609
153 1 0.371865 0.355558 0.250512
154 1 0.356893 0.363496 0.249976
155 1 0.356402 0.382584 0.249538
156 1 0.37148 0.392898 0.25086
158 1 0.388058 0.364636 0.250538
159 1 0.387621 0.382642 0.250722
89 1 0.404503 0.303077 0.249387
92 1 0.403838 0.337205 0.250602
93 1 0.432176 0.302629 0.249317
94 1 0.419051 0.311863 0.249551
95 1 0.418963 0.329424 0.25014
96 1 0.434562 0.339022 0.249341
97 1 0.465613 0.302637 0.250468
98 1 0.449308 0.310508 0.249325
99 1 0.449153 0.32944 0.249814
100 1 0.463671 0.33795 0.25001
101 1 0.495733 0.303051 0.250154
102 1 0.480656 0.31244 0.250203
103 1 0.479848 0.32965 0.249868
104 1 0.494942 0.338695 0.249633
157 1 0.403219 0.355013 0.249401
160 1 0.40319 0.391742 0.249675
161 1 0.435982 0.356287 0.250712
162 1 0.419 0.3646 0.249227
163 1 0.41821 0.38245 0.249445
164 1 0.433542 0.391218 0.25081
165 1 0.46375 0.354947 0.249729
166 1 0.44961 0.3639 0.250749
167 1 0.449536 0.382801 0.250748
168 1 0.464479 0.391954 0.250026
169 1 0.496313 0.35477 0.250067
170 1 0.479686 0.363439 0.250644
171 1 0.478861 0.381819 0.250852
172 1 0.495536 0.389469 0.249925
105 1 0.527051 0.301667 0.250896
106 1 0.511121 0.310647 0.250244
107 1 0.510191 0.328749 0.250267
108 1 0.52591 0.336867 0.249484
109 1 0.557331 0.302352 0.250427
110 1 0.541498 0.311938 0.250525
111 1 0.540155 0.328728 0.25009
112 1 0.556453 0.338438 0.249862
113 1 0.585256 0.301761 0.250357
114 1 0.572175 0.310718 0.249328
115 1 0.572625 0.329157 0.250262
116 1 0.588259 0.33698 0.250201
173 1 0.525285 0.355213 0.250439
174 1 0.510964 0.363441 0.250223
175 1 0.511236 0.382359 0.249783
176 1 0.525485 0.391797 0.249668
177 1 0.557033 0.355309 0.250471
178 1 0.541333 0.363374 0.249813
179 1 0.541716 0.38315 0.249294
180 1 0.555585 0.393181 0.250427
181 1 0.587417 0.355414 0.250099
182 1 0.572349 0.364374 0.250459
183 1 0.571981 0.383035 0.249456
184 1 0.587867 0.39118 0.249633
117 1 0.617454 0.302216 0.249319
118 1 0.602648 0.311679 0.249583
119 1 0.603617 0.32938 0.250074
120 1 0.618446 0.338851 0.250126
121 1 0.649434 0.302919 0.250387
122 1 0.633624 0.309897 0.249573
123 1 0.633253 0.328862 0.249761
124 1 0.648823 0.338385 0.2499
125 1 0.681088 0.30222 0.249147
126 1 0.664629 0.311788 0.249576
127 1 0.663377 0.329363 0.250192
128 1 0.677723 0.338958 0.249589
130 1 0.695277 0.309969 0.249663
131 1 0.694377 0.329286 0.249098
185 1 0.619811 0.355729 0.249941
186 1 0.603658 0.364467 0.250027
187 1 0.603784 0.382733 0.250617
188 1 0.618853 0.391038 0.250237
189 1 0.648543 0.356436 0.250492
190 1 0.633641 0.364711 0.250548
191 1 0.634305 0.382848 0.250551
192 1 0.649475 0.390371 0.250403
193 1 0.679762 0.356165 0.249037
194 1 0.664327 0.365427 0.249769
195 1 0.664346 0.382472 0.249461
196 1 0.680116 0.390694 0.250125
198 1 0.695242 0.364555 0.249769
199 1 0.695497 0.38281 0.250314
129 1 0.710073 0.301372 0.250145
132 1 0.709116 0.339076 0.25048
133 1 0.74121 0.302779 0.25
134 1 0.725708 0.311283 0.250097
135 1 0.724497 0.328958 0.250589
136 1 0.74121 0.337877 0.25
197 1 0.709886 0.356602 0.250206
200 1 0.709791 0.392815 0.249255
201 1 0.74121 0.355565 0.25
202 1 0.725658 0.364169 0.250448
203 1 0.725542 0.382271 0.249097
204 1 0.74121 0.391172 0.25
205 1 0.249321 0.409492 0.249428
206 1 0.23465 0.418023 0.25
207 1 0.23465 0.435853 0.25
208 1 0.248865 0.444431 0.249615
209 1 0.279842 0.408851 0.249064
210 1 0.264996 0.416813 0.250254
211 1 0.263877 0.435125 0.250216
212 1 0.279612 0.445966 0.25027
214 1 0.29568 0.417089 0.249225
215 1 0.295777 0.436244 0.249691
273 1 0.248322 0.461569 0.250381
274 1 0.23465 0.471149 0.25
275 1 0.23465 0.488591 0.25
276 1 0.250508 0.497345 0.249689
277 1 0.280559 0.462139 0.250359
278 1 0.264815 0.470597 0.249484
279 1 0.265535 0.489616 0.250388
280 1 0.27912 0.498806 0.250382
282 1 0.295993 0.470739 0.249768
283 1 0.294168 0.488808 0.250518
213 1 0.311341 0.408101 0.25059
216 1 0.311313 0.444209 0.249658
217 1 0.342112 0.408631 0.250416
218 1 0.32706 0.416449 0.25056
219 1 0.327091 0.43559 0.249543
220 1 0.341415 0.445278 0.250493
221 1 0.373694 0.409085 0.250572
222 1 0.358078 0.417844 0.250105
223 1 0.357381 0.436208 0.249419
224 1 0.372218 0.445917 0.249522
226 1 0.388076 0.417229 0.249676
227 1 0.38685 0.435877 0.249357
281 1 0.313142 0.461218 0.250147
284 1 0.310666 0.498102 0.249476
285 1 0.340614 0.462825 0.249338
286 1 0.326828 0.470079 0.249118
287 1 0.325863 0.488524 0.249776
288 1 0.342116 0.49797 0.250637
289 1 0.374347 0.461779 0.249752
290 1 0.357598 0.46923 0.250497
291 1 0.358768 0.489195 0.249468
292 1 0.372839 0.496556 0.249911
294 1 0.38787 0.47039 0.249672
295 1 0.386528 0.488175 0.249815
225 1 0.403567 0.408886 0.249277
228 1 0.402101 0.444607 0.249409
229 1 0.435424 0.408868 0.250136
230 1 0.418935 0.417345 0.249844
231 1 0.417924 0.435691 0.250155
232 1 0.433974 0.444422 0.249661
233 1 0.465275 0.409358 0.249246
234 1 0.44943 0.417948 0.24948
235 1 0.448178 0.434702 0.250001
236 1 0.464868 0.442714 0.250455
237 1 0.494762 0.408955 0.249363
238 1 0.480031 0.418671 0.250316
239 1 0.479338 0.43533 0.250453
240 1 0.495349 0.444863 0.249862
293 1 0.402277 0.462502 0.24919
296 1 0.401879 0.499507 0.250404
297 1 0.43539 0.461665 0.249656
298 1 0.418754 0.470153 0.250096
299 1 0.41841 0.489529 0.250248
300 1 0.433764 0.497327 0.250853
301 1 0.464771 0.461737 0.250559
302 1 0.449179 0.47148 0.250003
303 1 0.447944 0.48877 0.249977
304 1 0.464459 0.498179 0.250395
305 1 0.495968 0.462081 0.250087
306 1 0.480177 0.470635 0.249927
307 1 0.479496 0.488701 0.250286
308 1 0.494535 0.498644 0.250483
241 1 0.527172 0.408791 0.250176
242 1 0.510545 0.418904 0.250637
243 1 0.509625 0.435627 0.250753
244 1 0.525961 0.444335 0.250799
245 1 0.555535 0.409369 0.250359
246 1 0.541818 0.416785 0.249866
247 1 0.541656 0.435431 0.249717
248 1 0.557528 0.445172 0.249362
249 1 0.589476 0.408905 0.24933
250 1 0.572248 0.417543 0.249238
251 1 0.571869 0.435851 0.249168
252 1 0.586757 0.445344 0.24916
309 1 0.527269 0.462475 0.250401
310 1 0.511601 0.470223 0.250422
311 1 0.51097 0.488555 0.250014
312 1 0.526774 0.496829 0.249925
313 1 0.558597 0.461846 0.250425
314 1 0.542442 0.470802 0.249803
315 1 0.541375 0.489053 0.249697
316 1 0.555741 0.499506 0.250416
317 1 0.587388 0.462009 0.250312
318 1 0.572405 0.471103 0.249911
319 1 0.570905 0.488621 0.249478
320 1 0.587217 0.497404 0.249873
253 1 0.619555 0.408491 0.249565
254 1 0.603759 0.416438 0.249787
255 1 0.603582 0.436105 0.2498
256 1 0.618087 0.444836 0.25003
257 1 0.648389 0.408777 0.249702
258 1 0.634032 0.418344 0.249471
259 1 0.63399 0.435756 0.249989
260 1 0.647789 0.444049 0.24909
261 1 0.680037 0.408599 0.250772
262 1 0.664783 0.418352 0.249753
263 1 0.664715 0.436064 0.249619
264 1 0.67982 0.444038 0.249246
266 1 0.69518 0.417895 0.250854
267 1 0.694643 0.435601 0.249666
321 1 0.618342 0.461574 0.249879
322 1 0.60287 0.46967 0.249472
323 1 0.602748 0.488472 0.250588
324 1 0.617542 0.497595 0.249914
325 1 0.647297 0.461864 0.250217
326 1 0.633616 0.471564 0.250556
327 1 0.634093 0.489668 0.249942